/*--------------------------------*- C++ -*----------------------------------*\
| =========                 |                                                 |
| \\      /  F ield         | OpenFOAM: The Open Source CFD Toolbox           |
|  \\    /   O peration     | Version:  4.x                                   |
|   \\  /    A nd           | Web:      www.OpenFOAM.org                      |
|    \\/     M anipulation  |                                                 |
\*---------------------------------------------------------------------------*/
FoamFile
{
    version     2.0;
    format      ascii;
    class       surfaceScalarField;
    location    "0.1";
    object      phi;
}
// * * * * * * * * * * * * * * * * * * * * * * * * * * * * * * * * * * * * * //

dimensions      [0 3 -1 0 0 0 0];

internalField   nonuniform List<scalar> 
4432
(
4.7395132768362438507e-06
-4.739513282964061356e-06
1.0549064644666676343e-05
-5.8095535793215384625e-06
1.6163637044104067146e-05
-5.614575956234095364e-06
2.178184519186251555e-05
-5.6182015373534048227e-06
2.7591977454892217082e-05
-5.8101242455118139768e-06
3.3679617494601933321e-05
-6.0876480649258830644e-06
4.0114061014317874967e-05
-6.4344584117175317609e-06
4.6958003242222022284e-05
-6.8439356503962489624e-06
5.4320270504995513973e-05
-7.3622639965857894113e-06
6.2267393543331676399e-05
-7.9471168646972985728e-06
7.0892940674394401535e-05
-8.6255511636614887178e-06
8.0314632381347025739e-05
-9.4216993524740692188e-06
9.079738795575225882e-05
-1.0482746869525989779e-05
0.00010262479956049302195
-1.1827421448585693131e-05
0.00011503077986506243563
-1.240597689478147062e-05
0.00012563446981168961648
-1.0603686007552433584e-05
0.00013246825476112965183
-6.8337884696717472098e-06
0.0001369174244966149328
-4.4491771075687510403e-06
0.00014215453328368069137
-5.23710658545642272e-06
0.00014471694192375218627
-2.5624154148667438596e-06
0.00012040805243071316241
2.4308885640167378681e-05
5.3208569621969231591e-05
6.7199474390617586705e-05
5.3208715987475284392e-05
4.7560066324247669001e-06
-9.4955284482462975294e-06
1.0551251272298948786e-05
-1.1604792872874700245e-05
1.6166748009719018875e-05
-1.1230062373609321668e-05
2.1786896134309710285e-05
-1.1238350429727070543e-05
2.7594609554416453669e-05
-1.1617848238908133493e-05
3.3677507857278999822e-05
-1.2170553223427916207e-05
4.0102689137963508088e-05
-1.2859646861655140313e-05
4.6940249456020003305e-05
-1.3681475445124774702e-05
5.428379561290567134e-05
-1.4705814136458568724e-05
6.2205638606748257053e-05
-1.5868970318046903738e-05
7.0839530934340631503e-05
-1.7259436155571303658e-05
8.0284634762979909623e-05
-1.8866811299294599698e-05
9.0631685213183129811e-05
-2.0829790373660992899e-05
0.00010213312151837022879
-2.3328865818858283922e-05
0.00011448721601333095108
-2.4760061915599644616e-05
0.00012636820709212333714
-2.2484681392484581091e-05
0.00013643886390600376514
-1.6904454320166380134e-05
0.00014420876727894578169
-1.2219078464624133951e-05
0.00015093534145841302173
-1.196368770899209602e-05
0.00015766247286250922215
-9.2895506601758763565e-06
0.00014850145043231882409
3.3469859390545720246e-05
9.8780973559208198518e-05
0.00011692010467224321591
0.00015198951732447909656
4.7525815077540354775e-06
-1.4248113525343248078e-05
1.0509600664805299642e-05
-1.7361806802871549733e-05
1.6094862101611935888e-05
-1.6815315367497714989e-05
2.1689016687956672323e-05
-1.6832510089421663858e-05
2.7467403119878962487e-05
-1.7396246216914177594e-05
3.3516955984952734901e-05
-1.8220104557646149513e-05
3.9903145436225631029e-05
-1.9245841216132064335e-05
4.6699280526101705083e-05
-2.0477600325920722747e-05
5.3990897408454069763e-05
-2.1997436762367625666e-05
6.185643086607922332e-05
-2.3734509556666250573e-05
7.0456147363221889959e-05
-2.5859139765608975638e-05
7.987491967443053828e-05
-2.8285595905740352259e-05
9.0136580680790634587e-05
-3.109144865711610192e-05
0.00010150114457881867361
-3.4693432877380772107e-05
0.00011396790955574185548
-3.7226827772628429266e-05
0.00012705864504552319611
-3.5575427410822484282e-05
0.00014065424918147467434
-3.0500057848418407158e-05
0.00015383762341671133162
-2.5402458362603242293e-05
0.00015938959251324635413
-1.7515658326618998642e-05
0.00015579200802635348238
-5.6919731022579968488e-06
0.00014645708145616072923
4.2804807943026519992e-05
0.00010875280299252072097
0.00015462452264578726018
0.0002607424546367719735
4.7425753610526075296e-06
-1.8990688651079099902e-05
1.0448729647307450179e-05
-2.3067958722137995242e-05
1.5988559739207864712e-05
-2.2355140278379138143e-05
2.1542896583816278894e-05
-2.2386852489114926105e-05
2.7278627943399628715e-05
-2.3131986703062384323e-05
3.3280130865506731225e-05
-2.4221601717417544554e-05
3.9611087400530800107e-05
-2.5576804789643408733e-05
4.6345920816369908283e-05
-2.721243116791445825e-05
5.3566955293381585059e-05
-2.9218471139954666573e-05
6.1357077759062456221e-05
-3.1524632027905216409e-05
6.988812163095061065e-05
-3.4390173994195307307e-05
7.9237357323794942914e-05
-3.7634846522755416223e-05
8.943889135381861543e-05
-4.1292976033260056718e-05
0.00010082461481915108432
-4.6079157475223613374e-05
0.0001136758111975367673
-5.0078029014878387779e-05
0.00012809072977692986047
-4.9990345815682127957e-05
0.00014367458459059540758
-4.6083916207885518962e-05
0.00015769830170543353834
-3.942617864826199409e-05
0.00016182560752929861384
-2.1642954963572202443e-05
0.0001494395400303355438
6.6940299409443591129e-06
0.00012767601223827310043
6.4568368136740339437e-05
9.7578116417284524106e-05
0.00018472236819402126288
0.00035832053051163958047
4.7256418870320992913e-06
-2.3716328416751291118e-05
1.036779849757389449e-05
-2.8710116200532673707e-05
1.5848204359965691653e-05
-2.7835543479616315141e-05
2.1349371371932197568e-05
-2.7888022970403250102e-05
2.7029285909350273692e-05
-2.8811907796701212968e-05
3.2968646850186749666e-05
-3.0160956884812667575e-05
3.9228888743829423247e-05
-3.183705586621699403e-05
4.5885651802273272728e-05
-3.3869194237926060508e-05
5.3016695765081631858e-05
-3.6349508581254848878e-05
6.0711900064826769346e-05
-3.9219836870601861218e-05
6.9153927610542489414e-05
-4.2832197870583829061e-05
7.8406037016930259752e-05
-4.688696677411833912e-05
8.8529503544684199495e-05
-5.1416435456803398301e-05
9.9965255703843159253e-05
-5.7514918122425327416e-05
0.00011349041219946080208
-6.3603188205314066051e-05
0.00012980956828484340793
-6.6309498182593707111e-05
0.00014793215892401926845
-6.4206509976247891705e-05
0.00015844631647705302666
-4.9940315580394498401e-05
0.00014869924744125373266
-1.1895889925638386374e-05
0.00013138712227694766235
2.4006186497620339245e-05
0.00010023333350441131673
9.5722421063074533036e-05
7.7230138537236130516e-05
0.00020772535362408543888
0.00043555075197323757331
4.7034926546774889051e-06
-2.8419818408884847948e-05
1.0269602904313817503e-05
-3.4276229418665849565e-05
1.5678513988434114791e-05
-3.3244452971491637101e-05
2.1115907801061143447e-05
-3.3325416964491617498e-05
2.6730149697216052122e-05
-3.4426154986659708189e-05
3.2597324830158830625e-05
-3.6028128678932182531e-05
3.8776775828402175776e-05
-3.8016514542027166643e-05
4.5345197459139832609e-05
-4.043761387441764725e-05
5.2376231381056148422e-05
-4.3380533853411301247e-05
5.9963936095024271346e-05
-4.6807546389816801456e-05
6.8304803940481381339e-05
-5.1173060981066204435e-05
7.7455580925875257975e-05
-5.6037744687221974812e-05
8.7486023437505824321e-05
-6.1446875816379632382e-05
9.8909123522136690055e-05
-6.8938027395251238452e-05
0.0001131302324342344938
-7.7824295474296728233e-05
0.00013123530966677025324
-8.4414577954826705954e-05
0.00015197490457451222432
-8.4946108215543523665e-05
0.00014306758719066198335
-4.1032999173187055639e-05
0.0001235069940314471404
7.6648537895922294047e-06
9.9795434760155884448e-05
4.7717658682768610782e-05
7.794638427036800995e-05
0.00011757159713775016568
5.1310817192489975287e-05
0.00023436063790303716817
0.00048686156506431093422
4.6817894133715190648e-06
-3.3101605545124142098e-05
1.0157281497594424261e-05
-3.9751724838992320875e-05
1.548407684780220636e-05
-3.8571246636640310623e-05
2.0850199514776026607e-05
-3.8691536976257695296e-05
2.6392048713670745801e-05
-3.9968009400191949762e-05
3.217968065701956224e-05
-4.1815759888784022704e-05
3.827098474792423391e-05
-4.4107821931131930258e-05
4.4741357396927086839e-05
-4.6907982671233342323e-05
5.1663616298904633671e-05
-5.0302787082481527315e-05
5.9133608048537909471e-05
-5.427754479349579988e-05
6.7347004330618265647e-05
-5.9386448109131896817e-05
7.6344633592672494918e-05
-6.503537244298278916e-05
8.6204431529561585754e-05
-7.1306675462310078919e-05
9.7516521751617001165e-05
-8.0250115385546860075e-05
0.00011207033950681379194
-9.2378119483227188156e-05
0.00013087126556403990297
-0.00010321550099450233341
0.0001425065794855993244
-9.6581419169358689999e-05
0.00012544772025905172146
-2.3974299408136231403e-05
0.00010084944362458156462
3.226329191400663821e-05
7.6448855675207010875e-05
7.2118039737027826025e-05
5.8122419276113329882e-05
0.00013589834264720235171
4.6513405233886025148e-05
0.00024596996066484001124
0.00053337492672053806939
4.6606915247832304776e-06
-3.7762295475313069207e-05
1.0023865160554979909e-05
-4.5114900059954317433e-05
1.5258644451650375085e-05
-4.380602462153117331e-05
2.054347017222365028e-05
-4.3976359472822934853e-05
2.6001193227000928633e-05
-4.5425737362878376648e-05
3.1695193121281418371e-05
-4.7509760205011810101e-05
3.7680853577855226281e-05
-5.0093481419773372779e-05
4.4031577526181560204e-05
-5.3258705141267659452e-05
5.0814247353300133177e-05
-5.7085454842232881032e-05
5.8133586084201258547e-05
-6.1596885404042371701e-05
6.6169024508026802597e-05
-6.7421880318119470441e-05
7.4904537942085800848e-05
-7.3770890060315862319e-05
8.4433252674276368442e-05
-8.083538942108003944e-05
9.5550109271471189644e-05
-9.1366973349589803593e-05
0.00010996023533306249645
-0.00010678824865275026714
0.00012904443050850382532
-0.00012229968730781632172
0.00012724441021527447214
-9.4781370963385782051e-05
0.00010918237678730336978
-5.912208286900670146e-06
8.3750927659193238916e-05
5.7694893467809157646e-05
5.7740638193037004187e-05
9.8128054247635998551e-05
4.1413918563019489079e-05
0.00015222485742316438145
3.7070210034777943198e-05
0.00025031378312600637177
0.00057044506189402391372
1.0184528911579220627e-06
-1.0184528975832565026e-06
4.7284374203939983473e-06
-3.7099692002672648654e-06
7.9918240111303222019e-06
-3.2632810190605692345e-06
1.0176832602324793105e-05
-2.184984017092859992e-06
1.135422216155773042e-05
-1.1773419883583593026e-06
1.1746727103601622378e-05
-3.9254261060085487612e-07
1.1586462486799630888e-05
1.6030638471526410428e-07
1.1069155323769412196e-05
5.174065444514653141e-07
1.0326915646194024303e-05
7.4217072831206798286e-07
9.4419263593834193942e-06
8.8507067545852978196e-07
8.4688881346599952359e-06
9.7300586499098824211e-07
7.4445036460288596119e-06
1.0244228565959876229e-06
6.392074919620341029e-06
1.0524202120570454701e-06
5.3266858550904404673e-06
1.0654899339075111153e-06
4.2566783672421169856e-06
1.0698902863083553949e-06
3.1871011380257587449e-06
1.0696460157896532906e-06
2.1198500058121470863e-06
1.0672544870708908364e-06
1.0559503275158841964e-06
1.0638669193129905892e-06
1.0559154004181785623e-06
9.6140322037240804111e-07
-1.9797149236417705017e-06
5.0108937554689979754e-06
-7.7594177959141518938e-06
8.5428762320261802531e-06
-6.7951695675198359815e-06
1.0849192290093808067e-05
-4.4913169815496754332e-06
1.2067988088831956079e-05
-2.3960198184198074344e-06
1.2506309674021199706e-05
-8.3081499052549406097e-07
1.240366507074780056e-05
2.6289833117948759077e-07
1.1900218170309468207e-05
1.0210194392686347488e-06
1.112532491006154707e-05
1.5169715657024703867e-06
1.0179889087239899688e-05
1.8306035190481716644e-06
9.1315588251192198713e-06
2.0213333649368073577e-06
8.0247847843302501912e-06
2.1313099652952708912e-06
6.8873111857437215293e-06
2.1897797118562236472e-06
5.7367320383701500363e-06
2.2162393106043018224e-06
4.5824761637957050741e-06
2.224006504072524329e-06
3.4299172063207331815e-06
2.2222027244197338509e-06
2.2808055319927692951e-06
2.2163866777943647818e-06
1.1345910007748844527e-06
2.2100649484883247983e-06
2.1904569578152548794e-06
6.0880900295834518938e-07
-2.5884181052710704429e-06
5.0040409768845186623e-06
-1.2154598172220744615e-05
8.8442076764922416128e-06
-1.0635246855516292493e-05
1.1201755231768019985e-05
-6.8488916512729471292e-06
1.2347753053160394606e-05
-3.5419536333708297262e-06
1.2679132161125085125e-05
-1.1621310610682087856e-06
1.2464385644402706203e-05
4.7757271285476815649e-07
1.1883378842202660811e-05
1.6021700742051665831e-06
1.106546724037186434e-05
2.3348329426246956211e-06
1.0100013202870652566e-05
2.7961467732931004531e-06
9.0459046360415617421e-06
3.0754393293302370401e-06
7.9419853727024505917e-06
3.2353553825245341636e-06
6.8124055030929774756e-06
3.3192112658888526749e-06
5.6725384507266651582e-06
3.3562255675446140648e-06
4.5304786246084674265e-06
3.3659888080926367086e-06
3.3907368253871102139e-06
3.3619344036769245045e-06
2.254666485486969472e-06
3.3524464635423263575e-06
1.1217416476744516554e-06
3.3429679060772208744e-06
3.31214527733516865e-06
4.7475748674090293189e-08
-2.6358147249439875938e-06
4.9186633188786443676e-06
-1.7025733761447334473e-05
9.3312423615365804941e-06
-1.5047762616177933745e-05
1.1757843662061406173e-05
-9.275504770258753855e-06
1.2779452045760450723e-05
-4.563539442436945487e-06
1.2978797782296045576e-05
-1.361392900002336621e-06
1.2658301811246550436e-05
7.9801831538988023666e-07
1.1999699645395897217e-05
2.2609162277282072713e-06
1.1129315751062155668e-05
3.2051870276519513977e-06
1.0130315280968066934e-05
3.795236724541281493e-06
9.0558719229069160428e-06
4.1498808358134827185e-06
7.9404363615835450366e-06
4.3509083591972770084e-06
6.8050643165341618627e-06
4.4544403567594966815e-06
5.6630218836370252138e-06
4.4983740903017985005e-06
4.5210985050814860337e-06
4.5078778822416861241e-06
3.382838770699614341e-06
4.5001565602697407055e-06
2.2490777564660735058e-06
4.4861634382908559357e-06
1.1190315053520121117e-06
4.4729998496716073147e-06
4.4311278212256146746e-06
-1.2500264275379321355e-06
-1.3857306123622249624e-06
4.7304115187806926044e-06
-2.3006110682588439979e-05
1.0053363119855575174e-05
-2.0370694879803593079e-05
1.2552696300364489954e-05
-1.1774800544693873902e-05
1.3369263747583298168e-05
-5.3800858529526463992e-06
1.3380300835706202063e-05
-1.3723189516172204172e-06
1.2922360794391363119e-05
1.2559106764153439736e-06
1.2167273147950105483e-05
3.0161215319761936989e-06
1.1231559244562507095e-05
4.1408840026718341524e-06
1.018959017376995174e-05
4.8372607674484903152e-06
9.0877206358757505779e-06
5.2517164782976421907e-06
7.9553437242835998527e-06
5.4834153734850047722e-06
6.8100035640262002426e-06
5.5996871024956726163e-06
5.6625253331015642141e-06
5.645929928301961055e-06
4.5181877779824712097e-06
5.6521787314834752842e-06
3.3793962644846550928e-06
5.6388833169033483143e-06
2.2462831682645003565e-06
5.6192165893483874656e-06
1.1175906011535173104e-06
5.6016986350448498701e-06
5.5486772793665367545e-06
-1.216799830395884309e-06
-1.6890425081732744407e-07
5.339543476033350258e-06
-2.9562342249810387028e-05
1.1183655266014609945e-05
-2.6214806465297357883e-05
1.3607633606105145688e-05
-1.4198714822530474587e-05
1.4116790644575367072e-05
-5.8892513171808466135e-06
1.3876076262135890853e-05
-1.1314998588484834929e-06
1.3241433272055544573e-05
1.8905306474032213985e-06
1.23680040416523574e-05
3.8896308162436938916e-06
1.1353352279169480081e-05
5.1555247822837580756e-06
1.0259907529877318938e-05
5.9307608009478732057e-06
9.1252848088113021937e-06
6.3863061040368826384e-06
7.9726712434146580945e-06
6.6361603051182707749e-06
6.8154275368125832093e-06
6.7568624329345100001e-06
5.6614739979556347857e-06
6.7999059012212179214e-06
4.5142849692040249584e-06
6.799316995791041725e-06
3.3749392893206555248e-06
6.7781597679178957463e-06
2.2427020864814982957e-06
6.7513945961057043611e-06
1.1157041160216112714e-06
6.7287217294453902474e-06
6.664346273486703771e-06
2.8412325498774242977e-06
-3.0101466341133585886e-06
8.50618360760705021e-06
-3.5227126329391832702e-05
1.3046957158473369021e-05
-3.0755588245589845326e-05
1.4891338741088115858e-05
-1.6043041136810370505e-05
1.5000264031517974886e-05
-5.9981727821779753495e-06
1.4449969194991623577e-05
-5.8111346028395651751e-07
1.3605802494457002412e-05
2.7347119233464025897e-06
1.2594678812057670761e-05
4.9008289591038566821e-06
1.1489692551461079057e-05
6.2605214110259652482e-06
1.0337820010864770556e-05
7.0827083305517220127e-06
9.166209945577236416e-06
7.5579057042509348131e-06
7.9908282127433595679e-06
7.8116564855067812008e-06
6.8202727661499259372e-06
7.9273529285011487739e-06
5.6591743162168992674e-06
7.9609696994708960846e-06
4.5089438648487820919e-06
7.9494898105551775418e-06
3.369185953316109777e-06
7.9178647185920126656e-06
2.2381759655982868684e-06
7.8823516119403997261e-06
1.1133211943300980663e-06
7.853603603859500546e-06
7.7776336349146843143e-06
7.7718094465624244012e-06
-1.0781990828407545283e-05
1.316048230507902236e-05
-4.0615694296438710801e-05
1.5609069917253728097e-05
-3.3204172251140349028e-05
1.6355461637400725366e-05
-1.678943863147383593e-05
1.5957043711160945283e-05
-5.5997698904287866994e-06
1.5079831871004397068e-05
2.9613738046820220178e-07
1.4003008367662922692e-05
3.8115346441297224038e-06
1.2839435800749772921e-05
6.0644461608028217033e-06
1.1635608061952851448e-05
7.4643637587255481846e-06
1.0420241128499064926e-05
8.2981441022461548758e-06
9.2086505414066127391e-06
8.7694980706426807932e-06
8.0087623828603944691e-06
9.0116138907670734887e-06
6.8239689666596757049e-06
9.112086632953821959e-06
5.6553409405345385092e-06
9.1295260245707866663e-06
4.5020297213511518823e-06
9.1027540721736118509e-06
3.362069271525143048e-06
9.0578029171011461212e-06
2.2326706751000954258e-06
9.0117016261460515791e-06
1.1104438847732474209e-06
8.9758330523332682224e-06
8.8880465766856899429e-06
9.7215979669913765195e-06
-4.7483892644457434558e-05
2.0779425937488488148e-05
-5.61727300068752246e-05
3.1526479539026518943e-05
-5.4553076514261517689e-05
4.2416068923157832264e-05
-5.4865944946197594493e-05
5.3662415020646859153e-05
-5.667208715196428388e-05
6.5365093987269418975e-05
-5.9212441123692805336e-05
7.7636359644836603223e-05
-6.236474637648528965e-05
9.0594090411058868532e-05
-6.621643661498073305e-05
0.00010441166786340143704
-7.0903031811509652704e-05
0.00011924848355570199794
-7.6433699978719320126e-05
0.00013540497028983805236
-8.3578364432307199194e-05
0.0001528595608434564013
-9.1225481325905071676e-05
0.00017246886478031577331
-0.00010044469040977225616
0.00019664921276672954866
-0.00011554732309859170128
0.00022494176408806182432
-0.00013508079342333415506
0.00024626396438297634564
-0.0001436218805577769487
0.00021350561023401708194
-6.2022939586370523339e-05
0.0001637585793190539775
4.3834986930581117364e-05
0.00011293465620564432017
0.00010851883803242251623
7.1294165738472546189e-05
0.0001397686120190718632
5.074148918338580288e-05
0.00017277737440986337225
6.9259194730712791976e-05
0.00023179608263021420924
0.00046249268716868073862
0.00017721172196703024841
9.448556203189813408e-06
-5.6932449187911824599e-05
1.9878780852497843342e-05
-6.6602953034455644071e-05
3.0059227490484818473e-05
-6.4733519592297158042e-05
4.0406997487613990742e-05
-6.5213713634203692468e-05
5.1073909730804343545e-05
-6.7339006491386990856e-05
6.2131638598241146392e-05
-7.0270173356025514852e-05
7.366808028767331967e-05
-7.390118620709310276e-05
8.5786393545268918299e-05
-7.8334751790010370915e-05
9.8605230367658456832e-05
-8.3721865370104127488e-05
0.00011226951444211914473
-9.0097975699813317172e-05
0.00012698854378565026853
-9.8297398054814544201e-05
0.00014256517024431849465
-0.0001068021066788259546
0.00016016848996807661132
-0.00011804800396290760357
0.00018209411938611738788
-0.00013747295208283496224
0.00020635472625598220227
-0.00015934137277273357071
0.00019293730239462522223
-0.00013020440502834067556
0.00014387933855589059339
-1.2965211932696519062e-05
9.1404816667587512891e-05
9.6309588096687615715e-05
5.6578020854288151151e-05
0.00014334546469782887272
3.9005030995327700084e-05
0.00015734190133282868252
3.9636836700474473399e-05
0.00017214547867262964967
7.1190447440650463291e-05
0.00020024254424109785172
0.00033311229046106513065
0.00020057094927327428417
9.0999492406935427461e-06
-6.6032397841840005095e-05
1.8826298234144156338e-05
-7.6329297813992265137e-05
2.836448561884250322e-05
-7.4271706239093608355e-05
3.8093075118634310929e-05
-7.4942309015126734855e-05
4.8094191121035688582e-05
-7.7340131179593962969e-05
5.8410955694369268978e-05
-8.0586938155698326623e-05
6.910875424946086483e-05
-8.4598981265477136439e-05
8.0264492713799423431e-05
-8.9490489742286897742e-05
9.1949464476432762449e-05
-9.5406830667484776197e-05
0.00010426703023571904901
-0.00010241553524447241576
0.0001173151972273247471
-0.00011134556982837800392
0.00013077893426830379357
-0.0001202658370184149614
0.00014624172022684793991
-0.00013351079328384333252
0.0001641422939239332488
-0.00015537351992990521866
0.00017459442787104970975
-0.00016979352922412096647
0.00014522009107445035835
-0.00010082998029731052335
8.3672493978507276745e-05
4.8582615508912233753e-05
4.6048338831271569773e-05
0.00013393379688272528667
3.3877072317579646544e-05
0.00015551676480508885457
3.3250486313729732618e-05
0.00015796856693167605958
4.2106114797180814566e-05
0.00016328978582998577435
6.6364095574017982352e-05
0.00017598471813825200451
0.00022909418095211814314
0.00017038210337673914468
8.6729318394192469912e-06
-7.4705327597099076102e-05
1.763883192990155105e-05
-8.5295195760532203704e-05
2.6483734098554995504e-05
-8.3116614158059310552e-05
3.5529806372902490448e-05
-8.3988391891837594358e-05
4.47952578201602411e-05
-8.6605586680058593992e-05
5.429823816755649865e-05
-9.0089912661341070956e-05
6.4082487842552244162e-05
-9.4383226325052185768e-05
7.4195012927025135981e-05
-9.9603008712192495229e-05
8.4665046601288979642e-05
-0.00010587685937944521096
9.5546812284775882841e-05
-0.00011329730648414928075
0.0001068102322337118504
-0.00012260898418726867199
0.00011813008221443225198
-0.00013158568773200934312
0.00013134344064790934824
-0.00014672415669824017174
0.00014499232247067034827
-0.00016902240212011645669
0.00014350525704815214807
-0.00016830652144703728041
9.1953515864581417518e-05
-4.9278203194852577401e-05
4.0880814313530344827e-05
9.9655670598856088325e-05
2.5351135421169803741e-05
0.0001494636843243946924
2.8130102447629278054e-05
0.00015273798023204162547
3.4750296800488724694e-05
0.00015134849435102679062
4.5155632023725669993e-05
0.00015288458762822843408
6.5033869149502056576e-05
0.0001561066262768210245
0.00016712246030096256479
0.00012700579581390318736
8.1758487857472287208e-06
-8.2881175165706004329e-05
1.6342124406422270919e-05
-9.3461474929356426781e-05
2.4459535893707960144e-05
-9.1234036034901111098e-05
3.2776561554987656319e-05
-9.230542492310853163e-05
4.1257000120310135497e-05
-9.5086020896437199691e-05
4.9899602092611659756e-05
-9.8732507801450929228e-05
5.8728488598823961199e-05
-0.00010321210994604993188
6.7763181086634085995e-05
-0.00010863769317733542013
7.6997918560203656947e-05
-0.00011511159480542322055
8.6444332833413107327e-05
-0.00012274372646936106764
9.5961491732013355421e-05
-0.000132126135477686539
0.00010531306347773509849
-0.00014093726647867527635
0.00011618296243375445735
-0.00015759405912121594818
0.00012519521804492812463
-0.00017803465320438986632
0.00010427513940025925335
-0.00014738645477655040392
4.5829529919534120702e-05
9.167214362074906813e-06
1.7182626179776896736e-05
0.00012830255342172636624
1.9189129133414541649e-05
0.00014745756671666573651
2.7699486136031929099e-05
0.00014422758162559902863
3.659260740720858058e-05
0.00014245575521409762926
4.7731567198216394389e-05
0.00014174565672969428637
6.4109827103953366512e-05
0.00013972820874428592305
0.00013673829273178384511
9.4494170119733411498e-05
7.6173577562154027855e-06
-9.0498533885042959095e-05
1.4962431581889678716e-05
-0.00010080655618785043818
2.2332015377534144906e-05
-9.8603629861355269809e-05
2.9888831686963651581e-05
-9.9862241616019686028e-05
3.7554011525041358199e-05
-0.00010275119138150755793
4.5312767068950589972e-05
-0.00010649126211496988674
5.3172686585898749315e-05
-0.00011107202589086742216
6.1130801701694199618e-05
-0.00011659580442452933892
6.9156484421741259159e-05
-0.00012313727787837021321
7.7231612549979834835e-05
-0.00013081885194298810025
8.5151024216999199714e-05
-0.00014004555944380285256
9.2866474753522005605e-05
-0.00014865271964311553782
0.00010134859702691113707
-0.00016607617956921662001
0.00010520526059905137804
-0.0001818913012700952396
7.8301751657026315572e-05
-0.0001204828345420389115
2.3554689023837140099e-05
6.391477898532145019e-05
1.1066255214563404594e-05
0.00014079082594433209178
1.8997500419914736022e-05
0.00013952612773097467424
2.7748748457199191538e-05
0.00013547642000771164964
3.645843681595519484e-05
0.00013374617266604776336
4.6600062904694671754e-05
0.00013160407502717230959
5.8676215282829200426e-05
0.00012765215021614840238
0.00012141803430472409566
7.3996541174829098776e-05
7.0074960907023828408e-06
-9.7506032869733286661e-05
1.3525873183155102939e-05
-0.00010732494096100584063
2.0138906889421932843e-05
-0.00010521666888283818619
2.6918363092939695817e-05
-0.00010664169454502855688
3.375518543703081377e-05
-0.0001095880055217265985
4.0626193524661153829e-05
-0.00011336227330303672641
4.7526016433218872589e-05
-0.0001179718420925938429
5.4435072943559981704e-05
-0.00012350486605896442757
6.1307932171269103596e-05
-0.000130010138952876234
6.8108715996771575663e-05
-0.00013761963149323946649
7.4609206118282208535e-05
-0.00014654605994693167153
8.0947431563470245209e-05
-0.00015499094556037335902
8.7260631687449501364e-05
-0.00017238938904332162523
8.8515077619915651097e-05
-0.00018314575706370904082
5.1175905494317565066e-05
-8.3143602524437176457e-05
1.0401381043061504764e-05
0.00010468962382378093495
1.0439783519177299681e-05
0.00014075263539567244801
1.9110678759803349309e-05
0.00013085514301447770846
2.6558745523447720014e-05
0.00012802837414735394211
3.4169624214599915045e-05
0.00012613532611872508063
4.2540333075855134564e-05
0.0001232334220191523349
5.1488251391056564046e-05
0.00011870423965474596602
0.00011194610793041737226
6.0960122887499302072e-05
6.3594030673150562906e-06
-0.00010386544035268183172
1.2057183713461937089e-05
-0.00011302272871903180278
1.7914056431213819243e-05
-0.00011107353990768969456
2.3910836965428014208e-05
-0.00011263847223976866684
2.9920122652403056875e-05
-0.00011559729005923745034
3.5914211655914564771e-05
-0.00011935636306539786891
4.1878121797372244652e-05
-0.00012393574256964172029
4.778109047017191737e-05
-0.00012940784317985680311
5.3571002002299516261e-05
-0.00013580005293548915671
5.9201790459153059499e-05
-0.00014325042393549923948
6.4450008523924263819e-05
-0.00015179428307744165889
6.9583225362540668886e-05
-0.00016012415610477872142
7.4210228799037410608e-05
-0.00017701640004265297573
7.348610073576282431e-05
-0.00018242166641409086956
1.7895325794318379963e-05
-2.7552570446138764329e-05
-1.3403491835073268987e-06
0.00012392564886120851402
1.0235636697489659071e-05
0.00012917647509893236124
1.7922571928202502667e-05
0.00012316865842997679775
2.4368635761426181609e-05
0.00012158245944272732793
3.0934101511324843992e-05
0.00011956971515132703958
3.7733496010728888152e-05
0.00011643395519106457866
4.4594690006501629511e-05
0.00011184308723391943525
0.00010541682212946480192
5.1124084996659776008e-05
5.6858754542506473824e-06
-0.00010955132017838167325
1.0578919628875408653e-05
-0.00011791577714822519291
1.5687122676459408439e-05
-0.00011618173370906558102
2.0905798164899432447e-05
-0.00011785714260175827583
2.60992802426630856e-05
-0.00012079077655563079429
3.1237949697855485194e-05
-0.00012449503236022804275
3.6299704060891706139e-05
-0.00012899749584956878685
4.1247050741090989249e-05
-0.00013435519415079457285
4.6026558334542299049e-05
-0.00014057955788152607431
5.058582213505503233e-05
-0.00014780968443223955599
5.4730912485422832949e-05
-0.00015593937346883182758
5.877962229263060715e-05
-0.00016417286579698087503
6.1944648795493595633e-05
-0.00018018141354734536338
5.7396820989780855671e-05
-0.00017787385305865073245
-1.3883262434317245621e-06
3.1232018483828903437e-05
-4.542898161713403072e-06
0.00012708003338747316164
9.3578799688947708558e-06
0.00011527567629423613122
1.6283469741103799084e-05
0.00011624310807896936311
2.2096730821961093998e-05
0.00011576905680980469949
2.76253788207058161e-05
0.00011404091910838859891
3.3016650218032048993e-05
0.0001110426361644423443
3.8190300186603356515e-05
0.00010666943765578038212
0.00010082310529910643666
4.2784051565184551963e-05
4.9988462011483075165e-06
-0.00011455016851184910689
9.1088720598767779012e-06
-0.00012202580188130456018
1.3481393955316348587e-05
-0.0001205542457608658254
1.7934363436619088446e-05
-0.00012231010577805920356
2.2331364489272084359e-05
-0.00012518777558379997543
2.6642906941877691292e-05
-0.00012880657144913844271
3.0841844336784474427e-05
-0.00013319644513135601343
3.4888097817005962037e-05
-0.00013840144767828313488
3.8729749701585250779e-05
-0.00014442120401982150931
4.2308366951437499886e-05
-0.00015138830316050949447
4.547725344581991894e-05
-0.00015910825649960812895
4.8463069571510749916e-05
-0.00016715868907778733089
5.05834425470905397e-05
-0.00018230176436208347609
3.7891040858042447387e-05
-0.00016518136386686315667
-3.1771693018122353181e-06
7.2300166319185538047e-05
2.6898221658901921343e-06
0.00012121295476344764173
9.9776987974507341502e-06
0.00010798764368151558097
1.5683489439682249649e-05
0.00011053697289809971563
2.0325432884013739401e-05
0.00011112698955803281204
2.4561519049279526992e-05
0.00010980494642673598027
2.8578758016772089201e-05